Siesta Version  : 4.1.5
Architecture    : unknown
Compiler version: GNU Fortran (GCC) 9.4.0
Compiler flags  : mpifort -march=nocona -mtune=haswell -ftree-vectorize -fPIC -fstack-protectorr-strong -fno-plt -O2 -ffunction-sections -pipe
PP flags        : -DFC_HAVE_ABORT -DCDF -DMPI -DSIESTA__MRRR -DNCDF -DNCDF_4
Libraries       : libncdf.a libfdict.a -lscalapack -llapack -lblas -lnetcdff -lnetcdf -lhdf5_hll -lhdf5 -lz
PARALLEL version
NetCDF support
NetCDF-4 support

* Running in serial mode with MPI
>> Start of run:  20-APR-2023  11:53:03

                           ***********************       
                           *  WELCOME TO SIESTA  *       
                           ***********************       

reinit: Reading from RUN.fdf

reinit: -----------------------------------------------------------------------
reinit: System Name: 
reinit: -----------------------------------------------------------------------
reinit: System Label: siesta_2
reinit: -----------------------------------------------------------------------

initatom: Reading input for the pseudopotentials and atomic orbitals ----------
Species number:   1 Atomic number:    6 Label: C
Species number:   2 Atomic number:    1 Label: H

Ground state valence configuration:   2s02  2p02
Reading pseudopotential information in formatted form from C.psf

Valence configuration for pseudopotential generation:
2s( 2.00) rc: 1.54
2p( 2.00) rc: 1.54
3d( 0.00) rc: 1.54
4f( 0.00) rc: 1.54
Ground state valence configuration:   1s01
Reading pseudopotential information in formatted form from H.psf

Valence configuration for pseudopotential generation:
1s( 1.00) rc: 1.31
2p( 0.00) rc: 1.31
3d( 0.00) rc: 0.37
4f( 0.00) rc: 1.31
For C, standard SIESTA heuristics set lmxkb to 3
 (one more than the basis l, including polarization orbitals).
Use PS.lmax or PS.KBprojectors blocks to override.
For H, standard SIESTA heuristics set lmxkb to 2
 (one more than the basis l, including polarization orbitals).
Use PS.lmax or PS.KBprojectors blocks to override.

<basis_specs>
===============================================================================
C                    Z=   6    Mass=  12.010        Charge= 0.17977+309
Lmxo=1 Lmxkb= 3    BasisType=split      Semic=F
L=0  Nsemic=0  Cnfigmx=2
          i=1  nzeta=2  polorb=0  (2s)
            splnorm:   0.15000    
               vcte:    0.0000    
               rinn:    0.0000    
               qcoe:    0.0000    
               qyuk:    0.0000    
               qwid:   0.10000E-01
                rcs:    0.0000      0.0000    
            lambdas:    1.0000      1.0000    
L=1  Nsemic=0  Cnfigmx=2
          i=1  nzeta=2  polorb=1  (2p)
            splnorm:   0.15000    
               vcte:    0.0000    
               rinn:    0.0000    
               qcoe:    0.0000    
               qyuk:    0.0000    
               qwid:   0.10000E-01
                rcs:    0.0000      0.0000    
            lambdas:    1.0000      1.0000    
-------------------------------------------------------------------------------
L=0  Nkbl=1  erefs: 0.17977+309
L=1  Nkbl=1  erefs: 0.17977+309
L=2  Nkbl=1  erefs: 0.17977+309
L=3  Nkbl=1  erefs: 0.17977+309
===============================================================================
</basis_specs>

atom: Called for C                     (Z =   6)

read_vps: Pseudopotential generation method:
read_vps: ATM3      Troullier-Martins                       
Valence charge for ps generation:    4.00000

read_vps: Pseudopotential includes a core correction:
read_vps: Pseudo-core for xc-correction

xc_check: Exchange-correlation functional:
xc_check: Ceperley-Alder
xc_check: WARNING: Pseudopotential generated with GGA PBE functional
V l=0 = -2*Zval/r beyond r=  1.5227
V l=1 = -2*Zval/r beyond r=  1.5227
V l=2 = -2*Zval/r beyond r=  1.5227
V l=3 = -2*Zval/r beyond r=  1.5038
All V_l potentials equal beyond r=  1.5227
This should be close to max(r_c) in ps generation
All pots = -2*Zval/r beyond r=  1.5227

VLOCAL1: 99.0% of the norm of Vloc inside     18.722 Ry
VLOCAL1: 99.9% of the norm of Vloc inside     42.668 Ry
atom: Maximum radius for 4*pi*r*r*local-pseudopot. charge    1.83678
atom: Maximum radius for r*vlocal+2*Zval:    1.58088
GHOST: No ghost state for L =  0
GHOST: No ghost state for L =  1
GHOST: No ghost state for L =  2
GHOST: No ghost state for L =  3

KBgen: Kleinman-Bylander projectors: 
   l= 0   rc=  1.704034   el= -0.998584   Ekb=  5.327875   kbcos=  0.314897
   l= 1   rc=  1.704034   el= -0.383998   Ekb= -3.785479   kbcos= -0.363289
   l= 2   rc=  1.791422   el=  0.002326   Ekb= -0.971263   kbcos= -0.009325
   l= 3   rc=  1.859892   el=  0.003420   Ekb= -0.399672   kbcos= -0.001232

KBgen: Total number of Kleinman-Bylander projectors:   16
atom: -------------------------------------------------------------------------

atom: SANKEY-TYPE ORBITALS:
atom: Selected multiple-zeta basis: split     

SPLIT: Orbitals with angular momentum L= 0

SPLIT: Basis orbitals for state 2s

SPLIT: PAO cut-off radius determined from an
SPLIT: energy shift=  0.020000 Ry

   izeta = 1
                 lambda =    1.000000
                     rc =    4.191849
                 energy =   -0.980459
                kinetic =    0.881507
    potential(screened) =   -1.861966
       potential(ionic) =   -5.449625

   izeta = 2
                 rmatch =    3.431921
              splitnorm =    0.150000
                 energy =   -0.849396
                kinetic =    1.300036
    potential(screened) =   -2.149433
       potential(ionic) =   -5.962781

SPLIT: Orbitals with angular momentum L= 1

SPLIT: Basis orbitals for state 2p

SPLIT: PAO cut-off radius determined from an
SPLIT: energy shift=  0.020000 Ry

   izeta = 1
                 lambda =    1.000000
                     rc =    4.993604
                 energy =   -0.366127
                kinetic =    2.463190
    potential(screened) =   -2.829316
       potential(ionic) =   -6.291180

   izeta = 2
                 rmatch =    3.518811
              splitnorm =    0.150000
                 energy =   -0.204163
                kinetic =    3.723883
    potential(screened) =   -3.928045
       potential(ionic) =   -7.766545

POLgen: Perturbative polarization orbital with L=  2

POLgen: Polarization orbital for state 2p

   izeta = 1
                     rc =    4.993604
                 energy =    1.232619
                kinetic =    2.527283
    potential(screened) =   -1.294664
       potential(ionic) =   -4.203101
atom: Total number of Sankey-type orbitals: 13

atm_pop: Valence configuration (for local Pseudopot. screening):
 2s( 2.00)                                                            
 2p( 2.00)                                                            
Vna: chval, zval:    4.00000   4.00000

Vna:  Cut-off radius for the neutral-atom potential:   4.993604
comcore: Pseudo-core radius Rcore=  1.791422

atom: _________________________________________________________________________

<basis_specs>
===============================================================================
H                    Z=   1    Mass=  1.0100        Charge= 0.17977+309
Lmxo=0 Lmxkb= 2    BasisType=split      Semic=F
L=0  Nsemic=0  Cnfigmx=1
          i=1  nzeta=2  polorb=1  (1s)
            splnorm:   0.15000    
               vcte:    0.0000    
               rinn:    0.0000    
               qcoe:    0.0000    
               qyuk:    0.0000    
               qwid:   0.10000E-01
                rcs:    0.0000      0.0000    
            lambdas:    1.0000      1.0000    
-------------------------------------------------------------------------------
L=0  Nkbl=1  erefs: 0.17977+309
L=1  Nkbl=1  erefs: 0.17977+309
L=2  Nkbl=1  erefs: 0.17977+309
===============================================================================
</basis_specs>

atom: Called for H                     (Z =   1)

read_vps: Pseudopotential generation method:
read_vps: ATM3      Troullier-Martins                       
Valence charge for ps generation:    1.00000

xc_check: Exchange-correlation functional:
xc_check: Ceperley-Alder
xc_check: WARNING: Pseudopotential generated with GGA PBE functional
V l=0 = -2*Zval/r beyond r=  1.2977
V l=1 = -2*Zval/r beyond r=  1.2815
V l=2 = -2*Zval/r beyond r=  1.2656
All V_l potentials equal beyond r=  1.2977
This should be close to max(r_c) in ps generation
All pots = -2*Zval/r beyond r=  1.2977

VLOCAL1: 99.0% of the norm of Vloc inside     25.776 Ry
VLOCAL1: 99.9% of the norm of Vloc inside     58.745 Ry
atom: Maximum radius for 4*pi*r*r*local-pseudopot. charge    1.52711
atom: Maximum radius for r*vlocal+2*Zval:    1.28155
GHOST: No ghost state for L =  0
GHOST: No ghost state for L =  1
GHOST: No ghost state for L =  2

KBgen: Kleinman-Bylander projectors: 
   l= 0   rc=  1.434438   el= -0.456815   Ekb= -1.960338   kbcos= -0.349997
   l= 1   rc=  1.508111   el=  0.001431   Ekb= -0.423993   kbcos= -0.025386
   l= 2   rc=  1.546352   el=  0.002365   Ekb= -0.376562   kbcos= -0.002012

KBgen: Total number of Kleinman-Bylander projectors:    9
atom: -------------------------------------------------------------------------

atom: SANKEY-TYPE ORBITALS:
atom: Selected multiple-zeta basis: split     

SPLIT: Orbitals with angular momentum L= 0

SPLIT: Basis orbitals for state 1s

SPLIT: PAO cut-off radius determined from an
SPLIT: energy shift=  0.020000 Ry

   izeta = 1
                 lambda =    1.000000
                     rc =    4.828263
                 energy =   -0.438372
                kinetic =    0.921576
    potential(screened) =   -1.359947
       potential(ionic) =   -1.906664

   izeta = 2
                 rmatch =    3.903467
              splitnorm =    0.150000
                 energy =   -0.330751
                kinetic =    1.475177
    potential(screened) =   -1.805928
       potential(ionic) =   -2.389550

POLgen: Perturbative polarization orbital with L=  1

POLgen: Polarization orbital for state 1s

   izeta = 1
                     rc =    4.828263
                 energy =    0.711580
                kinetic =    1.391494
    potential(screened) =   -0.679914
       potential(ionic) =   -1.168115
atom: Total number of Sankey-type orbitals:  5

atm_pop: Valence configuration (for local Pseudopot. screening):
 1s( 1.00)                                                            
Vna: chval, zval:    1.00000   1.00000

Vna:  Cut-off radius for the neutral-atom potential:   4.828263

atom: _________________________________________________________________________

prinput: Basis input ----------------------------------------------------------

PAO.BasisType split     

%block ChemicalSpeciesLabel
    1    6 C                       # Species index, atomic number, species label
    2    1 H                       # Species index, atomic number, species label
%endblock ChemicalSpeciesLabel

%block PAO.Basis                 # Define Basis set
C                     2                    # Species label, number of l-shells
 n=2   0   2                         # n, l, Nzeta 
   4.192      3.432   
   1.000      1.000   
 n=2   1   2 P   1                   # n, l, Nzeta, Polarization, NzetaPol
   4.994      3.519   
   1.000      1.000   
H                     1                    # Species label, number of l-shells
 n=1   0   2 P   1                   # n, l, Nzeta, Polarization, NzetaPol
   4.828      3.903   
   1.000      1.000   
%endblock PAO.Basis

prinput: ----------------------------------------------------------------------

Dumping basis to NetCDF file C.ion.nc
Dumping basis to NetCDF file H.ion.nc
coor:   Atomic-coordinates input format  =     Cartesian coordinates
coor:                                          (in Angstroms)

siesta: Atomic coordinates (Bohr) and species
siesta:      0.00000  18.89727   0.00000  1        1
siesta:      0.00000  24.26409   0.00000  1        2
siesta:      0.00000  26.94751   0.00000  1        3
siesta:      0.00000  32.31433   0.00000  1        4
siesta:      2.32390  20.23897   0.00000  1        5
siesta:      2.32390  22.92239   0.00000  1        6
siesta:      2.32390  28.28921   0.00000  1        7
siesta:      2.32390  30.97262   0.00000  1        8
siesta:      0.00000  16.84125   0.00000  2        9
siesta:      0.00000  34.37035   0.00000  2       10

siesta: System type = chain     

initatomlists: Number of atoms, orbitals, and projectors:     10   114   146

siesta: ******************** Simulation parameters ****************************
siesta:
siesta: The following are some of the parameters of the simulation.
siesta: A complete list of the parameters used, including default values,
siesta: can be found in file out.fdf
siesta:
redata: Spin configuration                          = collinear
redata: Number of spin components                   = 2
redata: Time-Reversal Symmetry                      = T
redata: Spin spiral                                 = F
redata: Long output                                 =   F
redata: Number of Atomic Species                    =        2
redata: Charge density info will appear in .RHO file
redata: Write Mulliken Pop.                         = NO
redata: Matel table size (NRTAB)                    =     1024
redata: Mesh Cutoff                                 =   250.0000 Ry
redata: Net charge of the system                    =     0.0000 |e|
redata: Min. number of SCF Iter                     =        0
redata: Max. number of SCF Iter                     =     1000
redata: SCF convergence failure will abort job
redata: SCF mix quantity                            = Hamiltonian
redata: Mix DM or H after convergence               =   F
redata: Recompute H after scf cycle                 =   F
redata: Mix DM in first SCF step                    =   T
redata: Write Pulay info on disk                    =   F
redata: New DM Occupancy tolerance                  = 0.000000000001
redata: No kicks to SCF
redata: DM Mixing Weight for Kicks                  =     0.5000
redata: Require Harris convergence for SCF          =   F
redata: Harris energy tolerance for SCF             =     0.000100 eV
redata: Require DM convergence for SCF              =   T
redata: DM tolerance for SCF                        =     0.000100
redata: Require EDM convergence for SCF             =   F
redata: EDM tolerance for SCF                       =     0.001000 eV
redata: Require H convergence for SCF               =   T
redata: Hamiltonian tolerance for SCF               =     0.001000 eV
redata: Require (free) Energy convergence for SCF   =   F
redata: (free) Energy tolerance for SCF             =     0.000100 eV
redata: Antiferro initial spin density              =   F
redata: Using Saved Data (generic)                  =   F
redata: Use continuation files for DM               =   F
redata: Neglect nonoverlap interactions             =   F
redata: Method of Calculation                       = Diagonalization
redata: Electronic Temperature                      =   299.9869 K
redata: Fix the spin of the system                  =   F
redata: Dynamics option                             = Single-point calculation
mix.SCF: Pulay mixing                            = Pulay
mix.SCF:    Variant                              = stable
mix.SCF:    History steps                        = 2
mix.SCF:    Linear mixing weight                 =     0.250000
mix.SCF:    Mixing weight                        =     0.250000
mix.SCF:    SVD condition                        = 0.1000E-07
mix.SCF: Spin-component mixing                   all
redata: Save all siesta data in one NC              =   F
redata: ***********************************************************************

%block SCF.Mixers
  Pulay
%endblock SCF.Mixers

%block SCF.Mixer.Pulay
  # Mixing method
  method pulay
  variant stable

  # Mixing options
  weight 0.2500
  weight.linear 0.2500
  history 2
%endblock SCF.Mixer.Pulay

DM_history_depth set to one: no extrapolation allowed by default for geometry relaxation
Size of DM history Fstack: 1
Total number of electrons:    34.000000
Total ionic charge:    34.000000

* ProcessorY, Blocksize:    1  24


* Orbital distribution balance (max,min):   114   114

 Kpoints in:            5 . Kpoints trimmed:            5

siesta: k-grid: Number of k-points =     5
siesta: k-grid: Cutoff (effective) =     7.100 Ang
siesta: k-grid: Supercell and displacements
siesta: k-grid:   10   1   1      0.000
siesta: k-grid:    1   1   1      0.000
siesta: k-grid:    0   0   1      0.000

diag: Algorithm                                     = D&C
diag: Parallel over k                               =   F
diag: Use parallel 2D distribution                  =   F
diag: Parallel block-size                           = 24
diag: Parallel distribution                         =     1 x     1
diag: Used triangular part                          = Lower
diag: Absolute tolerance                            =  0.100E-15
diag: Orthogonalization factor                      =  0.100E-05
diag: Memory factor                                 =  1.0000

superc: Internal auxiliary supercell:     5 x     1 x     1  =       5
superc: Number of atoms, orbitals, and projectors:     50    570    730


ts: **************************************************************
ts: Save H and S matrices                           =    F
ts: Save DM and EDM matrices                        =    F
ts: Only save the overlap matrix S                  =    F
ts: **************************************************************

************************ Begin: TS CHECKS AND WARNINGS ************************
************************ End: TS CHECKS AND WARNINGS **************************


                     ====================================
                        Single-point calculation
                     ====================================

superc: Internal auxiliary supercell:     5 x     1 x     1  =       5
superc: Number of atoms, orbitals, and projectors:     50    570    730

outcell: Unit cell vectors (Ang):
        2.459512    0.000000    0.000000
        0.000000   28.520000    0.000000
        0.000000    0.000000   14.200000

outcell: Cell vector modules (Ang)   :    2.459512   28.520000   14.200000
outcell: Cell angles (23,13,12) (deg):     90.0000     90.0000     90.0000
outcell: Cell volume (Ang**3)        :    996.0631
<dSpData1D:S at geom step 0
  <sparsity:sparsity for geom step 0
    nrows_g=114 nrows=114 sparsity=3.2236 nnzs=41894, refcount: 7>
  <dData1D:(new from dSpData1D) n=41894, refcount: 1>
refcount: 1>
new_DM -- step:     1
Initializing Density Matrix...
DM filled with atomic data (user-defined):
<dSpData2D:DM initialized from atoms
  <sparsity:sparsity for geom step 0
    nrows_g=114 nrows=114 sparsity=3.2236 nnzs=41894, refcount: 8>
  <dData2D:DM n=41894 m=2, refcount: 1>
refcount: 1>
     spin moment: S , {S} =    0.00000       0.0       0.0   0.00000
No. of atoms with KB's overlaping orbs in proc 0. Max # of overlaps:      30     174
New grid distribution:   1
           1       1:   12    1:  144    1:   72

InitMesh: MESH =    24 x   288 x   144 =      995328
InitMesh: (bp) =    12 x   144 x    72 =      124416
InitMesh: Mesh cutoff (required, used) =   250.000   263.164 Ry
ExtMesh (bp) on 0 =    64 x   200 x   128 =     1638400
PhiOnMesh: Number of (b)points on node 0 =               124416
PhiOnMesh: nlist on node 0 =               927977

efield: External electric field =    0.000000    0.499999    0.000000 eV/Ang/e

efield: WARNING!
efield: There is no slab-dipole correction [Slab.DipoleCorrection none] although an external efield is present.
efield: For correct physics Slab.DipoleCorrection should be .true.
efield: This is only for backwards compatibility!


stepf: Fermi-Dirac step function

siesta: Program's energy decomposition (eV):
siesta: Ebs     =      -371.792789
siesta: Eions   =      2082.267704
siesta: Ena     =       444.983392
siesta: Ekin    =       926.521687
siesta: Enl     =      -105.889252
siesta: Eso     =         0.000000
siesta: Edftu   =         0.000000
siesta: DEna    =       -43.163092
siesta: DUscf   =         9.142188
siesta: DUext   =        -1.594646
siesta: Exc     =      -466.837373
siesta: eta*DQ  =         0.000000
siesta: Emadel  =         0.000000
siesta: Emeta   =         0.000000
siesta: Emolmec =         0.000000
siesta: Ekinion =         0.000000
siesta: Eharris =     -1308.372685
siesta: Etot    =     -1319.104799
siesta: FreeEng =     -1319.104799

        iscf     Eharris(eV)        E_KS(eV)     FreeEng(eV)     dDmax    Ef(eV) dHmax(eV)
   scf:    1    -1308.372685    -1319.104799    -1319.104799  0.968604 -5.553697 16.989964
     spin moment: S , {S} =    0.00000       0.0       0.0   0.00000
timer: Routine,Calls,Time,% = IterSCF        1       2.954  46.94
   scf:    2    -1304.897845    -1319.217100    -1319.218454  0.141001 -4.804994 14.980644
     spin moment: S , {S} =    0.00000       0.0       0.0   0.00000
   scf:    3    -1324.319657    -1323.509156    -1323.509161  0.111966 -4.588687  2.947207
     spin moment: S , {S} =   -0.00000       0.0       0.0  -0.00000
   scf:    4    -1323.779270    -1323.649181    -1323.649339  0.018149 -4.231817  1.825908
     spin moment: S , {S} =   -0.00000       0.0       0.0  -0.00000
   scf:    5    -1322.934594    -1323.469187    -1323.474287  0.088100 -3.733756  3.527999
     spin moment: S , {S} =    0.00000       0.0       0.0   0.00000
   scf:    6    -1323.502997    -1323.710746    -1323.710861  0.082898 -3.976020  1.608356
     spin moment: S , {S} =    0.00000       0.0       0.0   0.00000
   scf:    7    -1323.776166    -1323.744390    -1323.745268  0.008359 -3.852959  1.024721
     spin moment: S , {S} =   -0.00000       0.0       0.0  -0.00000
   scf:    8    -1322.119464    -1323.262828    -1323.265746  0.105554 -3.710737  4.390476
     spin moment: S , {S} =   -0.00000       0.0       0.0  -0.00000
   scf:    9    -1323.777793    -1323.766453    -1323.769516  0.088800 -3.798724  0.522012
     spin moment: S , {S} =    0.00000       0.0       0.0   0.00000
   scf:   10    -1323.718041    -1323.750926    -1323.755530  0.018271 -3.777825  1.145191
     spin moment: S , {S} =    0.00000       0.0       0.0   0.00000
   scf:   11    -1323.756757    -1323.753916    -1323.758412  0.001705 -3.778220  1.083462
     spin moment: S , {S} =   -0.00000       0.0       0.0  -0.00000
   scf:   12    -1323.716868    -1323.736833    -1323.741677  0.006213 -3.766478  1.363381
     spin moment: S , {S} =   -0.00000       0.0       0.0  -0.00000
   scf:   13    -1323.774300    -1323.756654    -1323.761358  0.002649 -3.782606  1.057867
     spin moment: S , {S} =    0.00000       0.0       0.0   0.00000
   scf:   14    -1323.795401    -1323.780717    -1323.785187  0.006187 -3.793902  0.304215
     spin moment: S , {S} =    0.00000       0.0       0.0   0.00000
   scf:   15    -1323.782329    -1323.781470    -1323.786097  0.003174 -3.776551  0.230311
     spin moment: S , {S} =    0.00000       0.0       0.0   0.00000
   scf:   16    -1323.688365    -1323.753443    -1323.756569  0.016666 -3.744517  1.031258
     spin moment: S , {S} =    0.00017       0.0       0.0   0.00017
   scf:   17    -1323.775262    -1323.781959    -1323.786587  0.016378 -3.761796  0.155739
     spin moment: S , {S} =    0.00000       0.0       0.0   0.00000
   scf:   18    -1323.782692    -1323.782392    -1323.786960  0.001077 -3.754169  0.066509
     spin moment: S , {S} =    0.00001       0.0       0.0   0.00001
   scf:   19    -1323.782402    -1323.782399    -1323.786986  0.000512 -3.747303  0.049360
     spin moment: S , {S} =    0.00001       0.0       0.0   0.00001
   scf:   20    -1323.774688    -1323.780232    -1323.784348  0.006364 -3.744269  0.297681
     spin moment: S , {S} =    0.00001       0.0       0.0   0.00001
   scf:   21    -1323.782077    -1323.782506    -1323.787049  0.005699 -3.745713  0.012781
     spin moment: S , {S} =    0.00001       0.0       0.0   0.00001
   scf:   22    -1323.782511    -1323.782509    -1323.787050  0.000044 -3.744861  0.009369
     spin moment: S , {S} =    0.00001       0.0       0.0   0.00001
   scf:   23    -1323.782536    -1323.782528    -1323.787045  0.000396 -3.742811  0.016117
     spin moment: S , {S} =    0.00001       0.0       0.0   0.00001
   scf:   24    -1323.782468    -1323.782506    -1323.787051  0.000416 -3.743929  0.008389
     spin moment: S , {S} =    0.00001       0.0       0.0   0.00001
   scf:   25    -1323.782520    -1323.782513    -1323.787052  0.000098 -3.743395  0.002803
     spin moment: S , {S} =    0.00001       0.0       0.0   0.00001
   scf:   26    -1323.782516    -1323.782515    -1323.787052  0.000023 -3.743113  0.001230
     spin moment: S , {S} =    0.00001       0.0       0.0   0.00001
   scf:   27    -1323.782519    -1323.782517    -1323.787052  0.000041 -3.742890  0.001149
     spin moment: S , {S} =    0.00001       0.0       0.0   0.00001
   scf:   28    -1323.782514    -1323.782516    -1323.787052  0.000020 -3.742974  0.000357
     spin moment: S , {S} =    0.00001       0.0       0.0   0.00001

SCF Convergence by DM+H criterion
max |DM_out - DM_in|         :     0.0000198121
max |H_out - H_in|      (eV) :     0.0003566682
SCF cycle converged after 28 iterations

Using DM_out to compute the final energy and forces
No. of atoms with KB's overlaping orbs in proc 0. Max # of overlaps:      30     174

siesta: E_KS(eV) =            -1323.7825

siesta: E_KS - E_eggbox =     -1323.7825
     spin moment: S , {S} =    0.00001       0.0       0.0   0.00001

siesta: Atomic forces (eV/Ang):
----------------------------------------
   Tot   -0.000000    0.006823   -0.000000
----------------------------------------
   Max    1.805750
   Res    0.638907    sqrt( Sum f_i^2 / 3N )
----------------------------------------
   Max    1.805750    constrained

Stress tensor Voigt[x,y,z,yz,xz,xy] (kbar):       -0.45       -5.98        0.47       -0.00       -0.00        0.00
(Free)E + p*V (eV/cell)    -1322.5542
Target enthalpy (eV/cell)    -1323.7871

siesta: Program's energy decomposition (eV):
siesta: Ebs     =      -425.208015
siesta: Eions   =      2082.267704
siesta: Ena     =       444.983392
siesta: Ekin    =       899.275655
siesta: Enl     =       -99.955137
siesta: Eso     =         0.000000
siesta: Edftu   =         0.000000
siesta: DEna    =       -26.759644
siesta: DUscf   =         2.735196
siesta: DUext   =        -0.320811
siesta: Exc     =      -461.473464
siesta: eta*DQ  =         0.000000
siesta: Emadel  =         0.000000
siesta: Emeta   =         0.000000
siesta: Emolmec =         0.000000
siesta: Ekinion =         0.000000
siesta: Eharris =     -1323.782514
siesta: Etot    =     -1323.782516
siesta: FreeEng =     -1323.787052

siesta: Final energy (eV):
siesta:  Band Struct. =    -425.208015
siesta:       Kinetic =     899.275655
siesta:       Hartree =    6721.382251
siesta:       Edftu   =       0.000000
siesta:       Eso     =       0.000000
siesta:    Ext. field =      -0.320811
siesta:   Exch.-corr. =    -461.473464
siesta:  Ion-electron =  -14239.120352
siesta:       Ion-ion =    5756.474205
siesta:       Ekinion =       0.000000
siesta:         Total =   -1323.782516
siesta:         Fermi =      -3.742974

siesta: Atomic forces (eV/Ang):
siesta:      1   -0.000000    1.591232    0.000000
siesta:      2   -0.000000   -0.462944   -0.000000
siesta:      3   -0.000000    0.440828    0.000000
siesta:      4   -0.000000   -1.282523    0.000000
siesta:      5    0.000000   -1.805750   -0.000000
siesta:      6    0.000000    0.734128    0.000000
siesta:      7    0.000000   -0.728340   -0.000000
siesta:      8    0.000000    1.524280   -0.000000
siesta:      9   -0.000000   -0.711605   -0.000000
siesta:     10   -0.000000    0.707517   -0.000000
siesta: ----------------------------------------
siesta:    Tot   -0.000000    0.006823   -0.000000

siesta: Stress tensor (static) (eV/Ang**3):
siesta:    -0.000280    0.000000    0.000000
siesta:     0.000000   -0.003729   -0.000000
siesta:    -0.000000   -0.000000    0.000296

siesta: Cell volume =        996.063069 Ang**3

siesta: Pressure (static):
siesta:                Solid            Molecule  Units
siesta:           0.00001348         -0.00000257  Ry/Bohr**3
siesta:           0.00123771         -0.00023553  eV/Ang**3
siesta:           1.98304688         -0.37736974  kBar
(Free)E+ p_basis*V_orbitals  =       -1320.825103
(Free)Eharris+ p_basis*V_orbitals  =       -1320.825102
     spin moment: S , {S} =    0.00001       0.0       0.0   0.00001

siesta: Electric dipole (a.u.)  =   -0.000000    1.212490   -0.000000
siesta: Electric dipole (Debye) =   -0.000000    3.081845   -0.000000

dhscf: Vacuum level (max, mean) =    6.887048   -0.134211 eV

cite: Please see "siesta_2.bib" for an exhaustive BiBTeX file.
cite: Please clearly indicate Siesta version in published work: 4.1.5
cite: This calculation has made use of the following articles
cite: which are encouraged to be cited in a published work.
        Primary SIESTA paper
          DOI: www.doi.org/10.1088/0953-8984/14/11/302


timer: Elapsed wall time (sec) =      43.397
timer: CPU execution times (sec):

Routine            Calls   Time/call    Tot.time        %
siesta                 1      59.522      59.522   100.00
Setup                  1       0.167       0.167     0.28
bands                  1       0.000       0.000     0.00
KSV_init               1       0.000       0.000     0.00
IterGeom               1      58.449      58.449    98.20
state_init             1       0.248       0.248     0.42
hsparse                1       0.005       0.005     0.01
overlap                1       0.236       0.236     0.40
Setup_H0               1       2.923       2.923     4.91
naefs                  2       0.000       0.001     0.00
MolMec                 2       0.000       0.000     0.00
kinefsm                2       0.127       0.255     0.43
nlefsm                 2       0.692       1.383     2.32
DHSCF_Init             1       1.413       1.413     2.37
DHSCF1                 1       0.031       0.031     0.05
INITMESH               1       0.000       0.000     0.00
DHSCF2                 1       1.382       1.382     2.32
REMESH                 1       0.152       0.152     0.25
REORD                140       0.002       0.259     0.43
PHION                  1       0.920       0.920     1.55
COMM_BSC             250       0.002       0.420     0.71
POISON                32       0.195       6.234    10.47
fft                   64       0.087       5.594     9.40
IterSCF               28       1.867      52.263    87.80
setup_H               29       1.356      39.315    66.05
DHSCF                 31       1.378      42.703    71.74
DHSCF3                31       1.321      40.955    68.81
rhoofd                31       0.622      19.284    32.40
XC                    31       0.095       2.952     4.96
GXC-CellXC            31       0.079       2.451     4.12
cellXC                31       0.079       2.450     4.12
vmat                  30       0.345      10.352    17.39
writeHSX              30       0.010       0.287     0.48
compute_dm            28       0.460      12.877    21.63
diagon                28       0.459      12.852    21.59
c-eigval             280       0.015       4.256     7.15
c-buildHS            280       0.004       1.015     1.71
cdiag                560       0.014       8.030    13.49
cdiag1               560       0.002       1.329     2.23
cdiag2               560       0.002       1.248     2.10
cdiag3               560       0.010       5.321     8.94
c-eigvec             280       0.021       5.863     9.85
cdiag4               280       0.000       0.081     0.14
c-buildD             280       0.010       2.683     4.51
MIXER                 27       0.001       0.022     0.04
PostSCF                1       3.012       3.012     5.06
DHSCF4                 1       1.747       1.747     2.94
dfscf                  1       1.618       1.618     2.72
overfsm                1       0.016       0.016     0.03
state_analysis         1       0.001       0.001     0.00
siesta_move            1       0.000       0.000     0.00
Analysis               1       0.904       0.904     1.52
siesta_analysis        1       0.904       0.904     1.52
optical                1       0.000       0.000     0.00
  
>> End of run:  20-APR-2023  11:53:46
Job completed
