Siesta Version  : 4.1.5
Architecture    : unknown
Compiler version: GNU Fortran (GCC) 9.4.0
Compiler flags  : mpifort -march=nocona -mtune=haswell -ftree-vectorize -fPIC -fstack-protectorr-strong -fno-plt -O2 -ffunction-sections -pipe
PP flags        : -DFC_HAVE_ABORT -DCDF -DMPI -DSIESTA__MRRR -DNCDF -DNCDF_4
Libraries       : libncdf.a libfdict.a -lscalapack -llapack -lblas -lnetcdff -lnetcdf -lhdf5_hll -lhdf5 -lz
PARALLEL version
NetCDF support
NetCDF-4 support

* Running in serial mode with MPI
>> Start of run:  18-APR-2023  11:52:54

                           ***********************       
                           *  WELCOME TO SIESTA  *       
                           ***********************       

reinit: Reading from RUN.fdf

reinit: -----------------------------------------------------------------------
reinit: System Name: 
reinit: -----------------------------------------------------------------------
reinit: System Label: siesta_2
reinit: -----------------------------------------------------------------------

initatom: Reading input for the pseudopotentials and atomic orbitals ----------
Species number:   1 Atomic number:    6 Label: C
Species number:   2 Atomic number:    1 Label: H

Ground state valence configuration:   2s02  2p02
Reading pseudopotential information in formatted form from C.psf

Valence configuration for pseudopotential generation:
2s( 2.00) rc: 1.54
2p( 2.00) rc: 1.54
3d( 0.00) rc: 1.54
4f( 0.00) rc: 1.54
Ground state valence configuration:   1s01
Reading pseudopotential information in formatted form from H.psf

Valence configuration for pseudopotential generation:
1s( 1.00) rc: 1.31
2p( 0.00) rc: 1.31
3d( 0.00) rc: 0.37
4f( 0.00) rc: 1.31
For C, standard SIESTA heuristics set lmxkb to 3
 (one more than the basis l, including polarization orbitals).
Use PS.lmax or PS.KBprojectors blocks to override.
For H, standard SIESTA heuristics set lmxkb to 2
 (one more than the basis l, including polarization orbitals).
Use PS.lmax or PS.KBprojectors blocks to override.

<basis_specs>
===============================================================================
C                    Z=   6    Mass=  12.010        Charge= 0.17977+309
Lmxo=1 Lmxkb= 3    BasisType=split      Semic=F
L=0  Nsemic=0  Cnfigmx=2
          i=1  nzeta=2  polorb=0  (2s)
            splnorm:   0.15000    
               vcte:    0.0000    
               rinn:    0.0000    
               qcoe:    0.0000    
               qyuk:    0.0000    
               qwid:   0.10000E-01
                rcs:    0.0000      0.0000    
            lambdas:    1.0000      1.0000    
L=1  Nsemic=0  Cnfigmx=2
          i=1  nzeta=2  polorb=1  (2p)
            splnorm:   0.15000    
               vcte:    0.0000    
               rinn:    0.0000    
               qcoe:    0.0000    
               qyuk:    0.0000    
               qwid:   0.10000E-01
                rcs:    0.0000      0.0000    
            lambdas:    1.0000      1.0000    
-------------------------------------------------------------------------------
L=0  Nkbl=1  erefs: 0.17977+309
L=1  Nkbl=1  erefs: 0.17977+309
L=2  Nkbl=1  erefs: 0.17977+309
L=3  Nkbl=1  erefs: 0.17977+309
===============================================================================
</basis_specs>

atom: Called for C                     (Z =   6)

read_vps: Pseudopotential generation method:
read_vps: ATM3      Troullier-Martins                       
Valence charge for ps generation:    4.00000

read_vps: Pseudopotential includes a core correction:
read_vps: Pseudo-core for xc-correction

xc_check: Exchange-correlation functional:
xc_check: Ceperley-Alder
xc_check: WARNING: Pseudopotential generated with GGA PBE functional
V l=0 = -2*Zval/r beyond r=  1.5227
V l=1 = -2*Zval/r beyond r=  1.5227
V l=2 = -2*Zval/r beyond r=  1.5227
V l=3 = -2*Zval/r beyond r=  1.5038
All V_l potentials equal beyond r=  1.5227
This should be close to max(r_c) in ps generation
All pots = -2*Zval/r beyond r=  1.5227

VLOCAL1: 99.0% of the norm of Vloc inside     18.722 Ry
VLOCAL1: 99.9% of the norm of Vloc inside     42.668 Ry
atom: Maximum radius for 4*pi*r*r*local-pseudopot. charge    1.83678
atom: Maximum radius for r*vlocal+2*Zval:    1.58088
GHOST: No ghost state for L =  0
GHOST: No ghost state for L =  1
GHOST: No ghost state for L =  2
GHOST: No ghost state for L =  3

KBgen: Kleinman-Bylander projectors: 
   l= 0   rc=  1.704034   el= -0.998584   Ekb=  5.327875   kbcos=  0.314897
   l= 1   rc=  1.704034   el= -0.383998   Ekb= -3.785479   kbcos= -0.363289
   l= 2   rc=  1.791422   el=  0.002326   Ekb= -0.971263   kbcos= -0.009325
   l= 3   rc=  1.859892   el=  0.003420   Ekb= -0.399672   kbcos= -0.001232

KBgen: Total number of Kleinman-Bylander projectors:   16
atom: -------------------------------------------------------------------------

atom: SANKEY-TYPE ORBITALS:
atom: Selected multiple-zeta basis: split     

SPLIT: Orbitals with angular momentum L= 0

SPLIT: Basis orbitals for state 2s

SPLIT: PAO cut-off radius determined from an
SPLIT: energy shift=  0.020000 Ry

   izeta = 1
                 lambda =    1.000000
                     rc =    4.191849
                 energy =   -0.980459
                kinetic =    0.881507
    potential(screened) =   -1.861966
       potential(ionic) =   -5.449625

   izeta = 2
                 rmatch =    3.431921
              splitnorm =    0.150000
                 energy =   -0.849396
                kinetic =    1.300036
    potential(screened) =   -2.149433
       potential(ionic) =   -5.962781

SPLIT: Orbitals with angular momentum L= 1

SPLIT: Basis orbitals for state 2p

SPLIT: PAO cut-off radius determined from an
SPLIT: energy shift=  0.020000 Ry

   izeta = 1
                 lambda =    1.000000
                     rc =    4.993604
                 energy =   -0.366127
                kinetic =    2.463190
    potential(screened) =   -2.829316
       potential(ionic) =   -6.291180

   izeta = 2
                 rmatch =    3.518811
              splitnorm =    0.150000
                 energy =   -0.204163
                kinetic =    3.723883
    potential(screened) =   -3.928045
       potential(ionic) =   -7.766545

POLgen: Perturbative polarization orbital with L=  2

POLgen: Polarization orbital for state 2p

   izeta = 1
                     rc =    4.993604
                 energy =    1.232619
                kinetic =    2.527283
    potential(screened) =   -1.294664
       potential(ionic) =   -4.203101
atom: Total number of Sankey-type orbitals: 13

atm_pop: Valence configuration (for local Pseudopot. screening):
 2s( 2.00)                                                            
 2p( 2.00)                                                            
Vna: chval, zval:    4.00000   4.00000

Vna:  Cut-off radius for the neutral-atom potential:   4.993604
comcore: Pseudo-core radius Rcore=  1.791422

atom: _________________________________________________________________________

<basis_specs>
===============================================================================
H                    Z=   1    Mass=  1.0100        Charge= 0.17977+309
Lmxo=0 Lmxkb= 2    BasisType=split      Semic=F
L=0  Nsemic=0  Cnfigmx=1
          i=1  nzeta=2  polorb=1  (1s)
            splnorm:   0.15000    
               vcte:    0.0000    
               rinn:    0.0000    
               qcoe:    0.0000    
               qyuk:    0.0000    
               qwid:   0.10000E-01
                rcs:    0.0000      0.0000    
            lambdas:    1.0000      1.0000    
-------------------------------------------------------------------------------
L=0  Nkbl=1  erefs: 0.17977+309
L=1  Nkbl=1  erefs: 0.17977+309
L=2  Nkbl=1  erefs: 0.17977+309
===============================================================================
</basis_specs>

atom: Called for H                     (Z =   1)

read_vps: Pseudopotential generation method:
read_vps: ATM3      Troullier-Martins                       
Valence charge for ps generation:    1.00000

xc_check: Exchange-correlation functional:
xc_check: Ceperley-Alder
xc_check: WARNING: Pseudopotential generated with GGA PBE functional
V l=0 = -2*Zval/r beyond r=  1.2977
V l=1 = -2*Zval/r beyond r=  1.2815
V l=2 = -2*Zval/r beyond r=  1.2656
All V_l potentials equal beyond r=  1.2977
This should be close to max(r_c) in ps generation
All pots = -2*Zval/r beyond r=  1.2977

VLOCAL1: 99.0% of the norm of Vloc inside     25.776 Ry
VLOCAL1: 99.9% of the norm of Vloc inside     58.745 Ry
atom: Maximum radius for 4*pi*r*r*local-pseudopot. charge    1.52711
atom: Maximum radius for r*vlocal+2*Zval:    1.28155
GHOST: No ghost state for L =  0
GHOST: No ghost state for L =  1
GHOST: No ghost state for L =  2

KBgen: Kleinman-Bylander projectors: 
   l= 0   rc=  1.434438   el= -0.456815   Ekb= -1.960338   kbcos= -0.349997
   l= 1   rc=  1.508111   el=  0.001431   Ekb= -0.423993   kbcos= -0.025386
   l= 2   rc=  1.546352   el=  0.002365   Ekb= -0.376562   kbcos= -0.002012

KBgen: Total number of Kleinman-Bylander projectors:    9
atom: -------------------------------------------------------------------------

atom: SANKEY-TYPE ORBITALS:
atom: Selected multiple-zeta basis: split     

SPLIT: Orbitals with angular momentum L= 0

SPLIT: Basis orbitals for state 1s

SPLIT: PAO cut-off radius determined from an
SPLIT: energy shift=  0.020000 Ry

   izeta = 1
                 lambda =    1.000000
                     rc =    4.828263
                 energy =   -0.438372
                kinetic =    0.921576
    potential(screened) =   -1.359947
       potential(ionic) =   -1.906664

   izeta = 2
                 rmatch =    3.903467
              splitnorm =    0.150000
                 energy =   -0.330751
                kinetic =    1.475177
    potential(screened) =   -1.805928
       potential(ionic) =   -2.389550

POLgen: Perturbative polarization orbital with L=  1

POLgen: Polarization orbital for state 1s

   izeta = 1
                     rc =    4.828263
                 energy =    0.711580
                kinetic =    1.391494
    potential(screened) =   -0.679914
       potential(ionic) =   -1.168115
atom: Total number of Sankey-type orbitals:  5

atm_pop: Valence configuration (for local Pseudopot. screening):
 1s( 1.00)                                                            
Vna: chval, zval:    1.00000   1.00000

Vna:  Cut-off radius for the neutral-atom potential:   4.828263

atom: _________________________________________________________________________

prinput: Basis input ----------------------------------------------------------

PAO.BasisType split     

%block ChemicalSpeciesLabel
    1    6 C                       # Species index, atomic number, species label
    2    1 H                       # Species index, atomic number, species label
%endblock ChemicalSpeciesLabel

%block PAO.Basis                 # Define Basis set
C                     2                    # Species label, number of l-shells
 n=2   0   2                         # n, l, Nzeta 
   4.192      3.432   
   1.000      1.000   
 n=2   1   2 P   1                   # n, l, Nzeta, Polarization, NzetaPol
   4.994      3.519   
   1.000      1.000   
H                     1                    # Species label, number of l-shells
 n=1   0   2 P   1                   # n, l, Nzeta, Polarization, NzetaPol
   4.828      3.903   
   1.000      1.000   
%endblock PAO.Basis

prinput: ----------------------------------------------------------------------

Dumping basis to NetCDF file C.ion.nc
Dumping basis to NetCDF file H.ion.nc
coor:   Atomic-coordinates input format  =     Cartesian coordinates
coor:                                          (in Angstroms)

siesta: Atomic coordinates (Bohr) and species
siesta:      0.00000  18.89727   0.00000  1        1
siesta:      0.00000  24.26409   0.00000  1        2
siesta:      0.00000  26.94751   0.00000  1        3
siesta:      0.00000  32.31433   0.00000  1        4
siesta:      2.32390  20.23897   0.00000  1        5
siesta:      2.32390  22.92239   0.00000  1        6
siesta:      2.32390  28.28921   0.00000  1        7
siesta:      2.32390  30.97262   0.00000  1        8
siesta:      0.00000  16.84125   0.00000  2        9
siesta:      0.00000  34.37035   0.00000  2       10

siesta: System type = chain     

initatomlists: Number of atoms, orbitals, and projectors:     10   114   146

siesta: ******************** Simulation parameters ****************************
siesta:
siesta: The following are some of the parameters of the simulation.
siesta: A complete list of the parameters used, including default values,
siesta: can be found in file out.fdf
siesta:
redata: Spin configuration                          = none
redata: Number of spin components                   = 1
redata: Time-Reversal Symmetry                      = T
redata: Spin spiral                                 = F
redata: Long output                                 =   F
redata: Number of Atomic Species                    =        2
redata: Charge density info will appear in .RHO file
redata: Write Mulliken Pop.                         = NO
redata: Matel table size (NRTAB)                    =     1024
redata: Mesh Cutoff                                 =   250.0000 Ry
redata: Net charge of the system                    =     0.0000 |e|
redata: Min. number of SCF Iter                     =        0
redata: Max. number of SCF Iter                     =     1000
redata: SCF convergence failure will abort job
redata: SCF mix quantity                            = Hamiltonian
redata: Mix DM or H after convergence               =   F
redata: Recompute H after scf cycle                 =   F
redata: Mix DM in first SCF step                    =   T
redata: Write Pulay info on disk                    =   F
redata: New DM Occupancy tolerance                  = 0.000000000001
redata: No kicks to SCF
redata: DM Mixing Weight for Kicks                  =     0.5000
redata: Require Harris convergence for SCF          =   F
redata: Harris energy tolerance for SCF             =     0.000100 eV
redata: Require DM convergence for SCF              =   T
redata: DM tolerance for SCF                        =     0.000100
redata: Require EDM convergence for SCF             =   F
redata: EDM tolerance for SCF                       =     0.001000 eV
redata: Require H convergence for SCF               =   T
redata: Hamiltonian tolerance for SCF               =     0.001000 eV
redata: Require (free) Energy convergence for SCF   =   F
redata: (free) Energy tolerance for SCF             =     0.000100 eV
redata: Using Saved Data (generic)                  =   F
redata: Use continuation files for DM               =   F
redata: Neglect nonoverlap interactions             =   F
redata: Method of Calculation                       = Diagonalization
redata: Electronic Temperature                      =   299.9869 K
redata: Fix the spin of the system                  =   F
redata: Dynamics option                             = Single-point calculation
mix.SCF: Pulay mixing                            = Pulay
mix.SCF:    Variant                              = stable
mix.SCF:    History steps                        = 2
mix.SCF:    Linear mixing weight                 =     0.250000
mix.SCF:    Mixing weight                        =     0.250000
mix.SCF:    SVD condition                        = 0.1000E-07
redata: Save all siesta data in one NC              =   F
redata: ***********************************************************************

%block SCF.Mixers
  Pulay
%endblock SCF.Mixers

%block SCF.Mixer.Pulay
  # Mixing method
  method pulay
  variant stable

  # Mixing options
  weight 0.2500
  weight.linear 0.2500
  history 2
%endblock SCF.Mixer.Pulay

DM_history_depth set to one: no extrapolation allowed by default for geometry relaxation
Size of DM history Fstack: 1
Total number of electrons:    34.000000
Total ionic charge:    34.000000

* ProcessorY, Blocksize:    1  24


* Orbital distribution balance (max,min):   114   114

 Kpoints in:           50 . Kpoints trimmed:           50

siesta: k-grid: Number of k-points =    50
siesta: k-grid: Cutoff (effective) =     7.100 Ang
siesta: k-grid: Supercell and displacements
siesta: k-grid:   10   1   1      0.000
siesta: k-grid:    1  10   1      0.000
siesta: k-grid:    0   0   1      0.000

diag: Algorithm                                     = D&C
diag: Parallel over k                               =   F
diag: Use parallel 2D distribution                  =   F
diag: Parallel block-size                           = 24
diag: Parallel distribution                         =     1 x     1
diag: Used triangular part                          = Lower
diag: Absolute tolerance                            =  0.100E-15
diag: Orthogonalization factor                      =  0.100E-05
diag: Memory factor                                 =  1.0000

superc: Internal auxiliary supercell:     5 x     1 x     1  =       5
superc: Number of atoms, orbitals, and projectors:     50    570    730


ts: **************************************************************
ts: Save H and S matrices                           =    F
ts: Save DM and EDM matrices                        =    F
ts: Only save the overlap matrix S                  =    F
ts: **************************************************************

************************ Begin: TS CHECKS AND WARNINGS ************************
************************ End: TS CHECKS AND WARNINGS **************************


                     ====================================
                        Single-point calculation
                     ====================================

superc: Internal auxiliary supercell:     5 x     1 x     1  =       5
superc: Number of atoms, orbitals, and projectors:     50    570    730

outcell: Unit cell vectors (Ang):
        2.459512    0.000000    0.000000
        0.000000   28.520000    0.000000
        0.000000    0.000000   14.200000

outcell: Cell vector modules (Ang)   :    2.459512   28.520000   14.200000
outcell: Cell angles (23,13,12) (deg):     90.0000     90.0000     90.0000
outcell: Cell volume (Ang**3)        :    996.0631
<dSpData1D:S at geom step 0
  <sparsity:sparsity for geom step 0
    nrows_g=114 nrows=114 sparsity=3.2236 nnzs=41894, refcount: 7>
  <dData1D:(new from dSpData1D) n=41894, refcount: 1>
refcount: 1>
new_DM -- step:     1
Initializing Density Matrix...
DM filled with atomic data:
<dSpData2D:DM initialized from atoms
  <sparsity:sparsity for geom step 0
    nrows_g=114 nrows=114 sparsity=3.2236 nnzs=41894, refcount: 8>
  <dData2D:DM n=41894 m=1, refcount: 1>
refcount: 1>
No. of atoms with KB's overlaping orbs in proc 0. Max # of overlaps:      30     174
New grid distribution:   1
           1       1:   12    1:  144    1:   72

InitMesh: MESH =    24 x   288 x   144 =      995328
InitMesh: (bp) =    12 x   144 x    72 =      124416
InitMesh: Mesh cutoff (required, used) =   250.000   263.164 Ry
ExtMesh (bp) on 0 =    64 x   200 x   128 =     1638400
PhiOnMesh: Number of (b)points on node 0 =               124416
PhiOnMesh: nlist on node 0 =               927977

stepf: Fermi-Dirac step function

siesta: Program's energy decomposition (eV):
siesta: Ebs     =      -384.071488
siesta: Eions   =      2082.267704
siesta: Ena     =       444.983392
siesta: Ekin    =       925.924976
siesta: Enl     =      -105.807067
siesta: Eso     =         0.000000
siesta: Edftu   =         0.000000
siesta: DEna    =       -43.353618
siesta: DUscf   =         4.435264
siesta: DUext   =         0.000000
siesta: Exc     =      -466.671726
siesta: eta*DQ  =         0.000000
siesta: Emadel  =         0.000000
siesta: Emeta   =         0.000000
siesta: Emolmec =         0.000000
siesta: Ekinion =         0.000000
siesta: Eharris =     -1320.733164
siesta: Etot    =     -1322.756484
siesta: FreeEng =     -1322.766375

        iscf     Eharris(eV)        E_KS(eV)     FreeEng(eV)     dDmax    Ef(eV) dHmax(eV)
   scf:    1    -1320.733164    -1322.756484    -1322.766375  1.934384 -5.720798  5.024711
timer: Routine,Calls,Time,% = IterSCF        1       3.849  53.65
   scf:    2    -1323.725667    -1323.295557    -1323.306227  0.057484 -4.836991  2.854836
   scf:    3    -1323.709755    -1323.564032    -1323.574159  0.071874 -3.743036  0.664292
   scf:    4    -1323.558656    -1323.571311    -1323.581655  0.018940 -3.789473  0.686375
   scf:    5    -1322.486226    -1323.246005    -1323.252969  0.076776 -3.752662  3.172929
   scf:    6    -1323.567101    -1323.581726    -1323.592077  0.067942 -3.769692  0.304864
   scf:    7    -1323.584574    -1323.583306    -1323.593659  0.002920 -3.753432  0.154953
   scf:    8    -1323.542165    -1323.569892    -1323.580094  0.015259 -3.737973  0.687263
   scf:    9    -1323.575238    -1323.583207    -1323.593545  0.017103 -3.742869  0.220043
   scf:   10    -1323.584681    -1323.584205    -1323.594546  0.003360 -3.734853  0.083907
   scf:   11    -1323.582722    -1323.583695    -1323.594026  0.003067 -3.728646  0.160296
   scf:   12    -1323.580883    -1323.583640    -1323.593972  0.006114 -3.730573  0.168198
   scf:   13    -1323.584563    -1323.584395    -1323.594731  0.003159 -3.726536  0.036614
   scf:   14    -1323.584371    -1323.584390    -1323.594726  0.000663 -3.724244  0.042715
   scf:   15    -1323.582346    -1323.583820    -1323.594151  0.003496 -3.724740  0.142346
   scf:   16    -1323.584470    -1323.584434    -1323.594770  0.002903 -3.723085  0.013514
   scf:   17    -1323.584442    -1323.584438    -1323.594773  0.000177 -3.722256  0.012654
   scf:   18    -1323.583739    -1323.584218    -1323.594550  0.001871 -3.721917  0.083852
   scf:   19    -1323.584436    -1323.584442    -1323.594777  0.001753 -3.721738  0.006089
   scf:   20    -1323.584444    -1323.584443    -1323.594778  0.000082 -3.721432  0.003742
   scf:   21    -1323.584401    -1323.584430    -1323.594764  0.000479 -3.721167  0.021469
   scf:   22    -1323.584440    -1323.584444    -1323.594778  0.000488 -3.721239  0.003872
   scf:   23    -1323.584444    -1323.584444    -1323.594779  0.000054 -3.721126  0.001674
   scf:   24    -1323.584443    -1323.584444    -1323.594778  0.000091 -3.721046  0.004410
   scf:   25    -1323.584443    -1323.584444    -1323.594779  0.000132 -3.721069  0.002608
   scf:   26    -1323.584444    -1323.584444    -1323.594779  0.000046 -3.721033  0.000747

SCF Convergence by DM+H criterion
max |DM_out - DM_in|         :     0.0000463793
max |H_out - H_in|      (eV) :     0.0007471605
SCF cycle converged after 26 iterations

Using DM_out to compute the final energy and forces
No. of atoms with KB's overlaping orbs in proc 0. Max # of overlaps:      30     174

siesta: E_KS(eV) =            -1323.5844

siesta: E_KS - E_eggbox =     -1323.5844

siesta: Atomic forces (eV/Ang):
----------------------------------------
   Tot   -0.000000    0.005996    0.000000
----------------------------------------
   Max    1.738145
   Res    0.654147    sqrt( Sum f_i^2 / 3N )
----------------------------------------
   Max    1.738145    constrained

Stress tensor Voigt[x,y,z,yz,xz,xy] (kbar):       -0.37       -7.04        0.00       -0.00       -0.00        0.00
(Free)E + p*V (eV/cell)    -1322.0609
Target enthalpy (eV/cell)    -1323.5948

siesta: Program's energy decomposition (eV):
siesta: Ebs     =      -424.802819
siesta: Eions   =      2082.267704
siesta: Ena     =       444.983392
siesta: Ekin    =       899.322313
siesta: Enl     =       -99.975327
siesta: Eso     =         0.000000
siesta: Edftu   =         0.000000
siesta: DEna    =       -26.801291
siesta: DUscf   =         2.609442
siesta: DUext   =         0.000000
siesta: Exc     =      -461.455269
siesta: eta*DQ  =         0.000000
siesta: Emadel  =         0.000000
siesta: Emeta   =         0.000000
siesta: Emolmec =         0.000000
siesta: Ekinion =         0.000000
siesta: Eharris =     -1323.584444
siesta: Etot    =     -1323.584444
siesta: FreeEng =     -1323.594779

siesta: Final energy (eV):
siesta:  Band Struct. =    -424.802819
siesta:       Kinetic =     899.322313
siesta:       Hartree =    6721.293631
siesta:       Edftu   =       0.000000
siesta:       Eso     =       0.000000
siesta:    Ext. field =       0.000000
siesta:   Exch.-corr. =    -461.455269
siesta:  Ion-electron =  -14239.219324
siesta:       Ion-ion =    5756.474205
siesta:       Ekinion =       0.000000
siesta:         Total =   -1323.584444
siesta:         Fermi =      -3.721033

siesta: Atomic forces (eV/Ang):
siesta:      1   -0.000000    1.453161    0.000000
siesta:      2   -0.000000   -0.497132    0.000000
siesta:      3   -0.000000    0.515976    0.000000
siesta:      4   -0.000000   -1.454540    0.000000
siesta:      5    0.000000   -1.738145   -0.000000
siesta:      6    0.000000    0.756202    0.000000
siesta:      7    0.000000   -0.760694    0.000000
siesta:      8    0.000000    1.734088   -0.000000
siesta:      9   -0.000000   -0.678883   -0.000000
siesta:     10   -0.000000    0.675963   -0.000000
siesta: ----------------------------------------
siesta:    Tot   -0.000000    0.005996    0.000000

siesta: Stress tensor (static) (eV/Ang**3):
siesta:    -0.000229    0.000000   -0.000000
siesta:     0.000000   -0.004393   -0.000000
siesta:    -0.000000   -0.000000    0.000002

siesta: Cell volume =        996.063069 Ang**3

siesta: Pressure (static):
siesta:                Solid            Molecule  Units
siesta:           0.00001677          0.00000078  Ry/Bohr**3
siesta:           0.00153998          0.00007156  eV/Ang**3
siesta:           2.46734165          0.11466094  kBar
(Free)E+ p_basis*V_orbitals  =       -1320.632830
(Free)Eharris+ p_basis*V_orbitals  =       -1320.632830

siesta: Electric dipole (a.u.)  =    0.000000   -0.000105   -0.000000
siesta: Electric dipole (Debye) =    0.000000   -0.000267   -0.000000

cite: Please see "siesta_2.bib" for an exhaustive BiBTeX file.
cite: Please clearly indicate Siesta version in published work: 4.1.5
cite: This calculation has made use of the following articles
cite: which are encouraged to be cited in a published work.
        Primary SIESTA paper
          DOI: www.doi.org/10.1088/0953-8984/14/11/302


timer: Elapsed wall time (sec) =      41.045
timer: CPU execution times (sec):

Routine            Calls   Time/call    Tot.time        %
siesta                 1      89.890      89.890   100.00
Setup                  1       0.171       0.171     0.19
bands                  1       0.000       0.000     0.00
KSV_init               1       0.000       0.000     0.00
IterGeom               1      89.146      89.146    99.17
state_init             1       0.245       0.245     0.27
hsparse                1       0.005       0.005     0.01
overlap                1       0.233       0.233     0.26
Setup_H0               1       2.910       2.910     3.24
naefs                  2       0.000       0.001     0.00
MolMec                 2       0.000       0.000     0.00
kinefsm                2       0.128       0.255     0.28
nlefsm                 2       0.688       1.376     1.53
DHSCF_Init             1       1.407       1.407     1.56
DHSCF1                 1       0.031       0.031     0.03
INITMESH               1       0.000       0.000     0.00
DHSCF2                 1       1.376       1.376     1.53
REMESH                 1       0.152       0.152     0.17
REORD                 72       0.002       0.130     0.14
PHION                  1       0.911       0.911     1.01
COMM_BSC             118       0.002       0.199     0.22
POISON                30       0.191       5.723     6.37
fft                   60       0.086       5.158     5.74
IterSCF               26       3.222      83.772    93.19
setup_H               27       0.945      25.521    28.39
DHSCF                 29       0.962      27.897    31.03
DHSCF3                29       0.915      26.537    29.52
rhoofd                29       0.475      13.788    15.34
XC                    29       0.048       1.404     1.56
GXC-CellXC            29       0.040       1.159     1.29
cellXC                29       0.040       1.158     1.29
vmat                  28       0.176       4.938     5.49
writeHSX              28       0.008       0.236     0.26
compute_dm            26       2.239      58.213    64.76
diagon                26       2.239      58.201    64.75
c-eigval            1300       0.013      16.595    18.46
c-buildHS           1300       0.004       5.381     5.99
cdiag               2600       0.013      34.220    38.07
cdiag1              2600       0.001       2.893     3.22
cdiag2              2600       0.002       5.918     6.58
cdiag3              2600       0.010      24.842    27.64
c-eigvec            1300       0.022      28.465    31.67
cdiag4              1300       0.000       0.329     0.37
c-buildD            1300       0.010      12.969    14.43
MIXER                 25       0.000       0.010     0.01
PostSCF                1       2.218       2.218     2.47
DHSCF4                 1       1.360       1.360     1.51
dfscf                  1       1.240       1.240     1.38
overfsm                1       0.016       0.016     0.02
state_analysis         1       0.000       0.000     0.00
siesta_move            1       0.000       0.000     0.00
Analysis               1       0.571       0.571     0.64
siesta_analysis        1       0.571       0.571     0.64
optical                1       0.000       0.000     0.00
  
>> End of run:  18-APR-2023  11:53:35
Job completed
